LAMMPS data file via write_data, version 17 Feb 2022, timestep = 200

128 atoms
5 atom types

1.7965469164517023 12.299453083548297 xlo xhi
1.7965469164517023 12.299453083548297 ylo yhi
1.7965469164517023 12.299453083548297 zlo zhi

Masses

1 26.9815385
2 58.933194
3 51.9961
4 55.845
5 58.6934



Atoms # atomic

1	2	1.796546916	1.796546916	1.796546916
2	3	3.109410187	3.109410187	3.109410187
3	5	4.422273458	1.796546916	1.796546916
9	4	1.796546916	4.422273458	1.796546916
11	3	4.422273458	4.422273458	1.796546916
33	1	1.796546916	1.796546916	4.422273458
35	4	4.422273458	1.796546916	4.422273458
41	5	1.796546916	4.422273458	4.422273458
43	2	4.422273458	4.422273458	4.422273458
4	1	5.735136729	3.109410187	3.109410187
5	2	7.048	1.796546916	1.796546916
6	4	8.360863271	3.109410187	3.109410187
13	5	7.048	4.422273458	1.796546916
37	5	7.048	1.796546916	4.422273458
45	1	7.048	4.422273458	4.422273458
7	3	9.673726542	1.796546916	1.796546916
8	2	10.98658981	3.109410187	3.109410187
15	1	9.673726542	4.422273458	1.796546916
39	4	9.673726542	1.796546916	4.422273458
47	2	9.673726542	4.422273458	4.422273458
10	5	3.109410187	5.735136729	3.109410187
17	5	1.796546916	7.048	1.796546916
18	2	3.109410187	8.360863271	3.109410187
19	4	4.422273458	7.048	1.796546916
49	2	1.796546916	7.048	4.422273458
51	3	4.422273458	7.048	4.422273458
12	2	5.735136729	5.735136729	3.109410187
14	3	8.360863271	5.735136729	3.109410187
20	1	5.735136729	8.360863271	3.109410187
21	1	7.048	7.048	1.796546916
22	2	8.360863271	8.360863271	3.109410187
53	5	7.048	7.048	4.422273458
16	1	10.98658981	5.735136729	3.109410187
23	3	9.673726542	7.048	1.796546916
24	5	10.98658981	8.360863271	3.109410187
55	4	9.673726542	7.048	4.422273458
25	4	1.796546916	9.673726542	1.796546916
26	5	3.109410187	10.98658981	3.109410187
27	3	4.422273458	9.673726542	1.796546916
57	5	1.796546916	9.673726542	4.422273458
59	1	4.422273458	9.673726542	4.422273458
28	2	5.735136729	10.98658981	3.109410187
29	4	7.048	9.673726542	1.796546916
30	3	8.360863271	10.98658981	3.109410187
61	2	7.048	9.673726542	4.422273458
31	1	9.673726542	9.673726542	1.796546916
32	4	10.98658981	10.98658981	3.109410187
63	3	9.673726542	9.673726542	4.422273458
34	4	3.109410187	3.109410187	5.735136729
65	2	1.796546916	1.796546916	7.048
66	5	3.109410187	3.109410187	8.360863271
67	1	4.422273458	1.796546916	7.048
73	3	1.796546916	4.422273458	7.048
75	5	4.422273458	4.422273458	7.048
36	5	5.735136729	3.109410187	5.735136729
38	2	8.360863271	3.109410187	5.735136729
68	1	5.735136729	3.109410187	8.360863271
69	2	7.048	1.796546916	7.048
70	3	8.360863271	3.109410187	8.360863271
77	3	7.048	4.422273458	7.048
40	1	10.98658981	3.109410187	5.735136729
71	1	9.673726542	1.796546916	7.048
72	2	10.98658981	3.109410187	8.360863271
79	4	9.673726542	4.422273458	7.048
42	3	3.109410187	5.735136729	5.735136729
50	1	3.109410187	8.360863271	5.735136729
74	1	3.109410187	5.735136729	8.360863271
81	1	1.796546916	7.048	7.048
82	4	3.109410187	8.360863271	8.360863271
83	2	4.422273458	7.048	7.048
44	4	5.735136729	5.735136729	5.735136729
46	5	8.360863271	5.735136729	5.735136729
52	5	5.735136729	8.360863271	5.735136729
54	4	8.360863271	8.360863271	5.735136729
76	2	5.735136729	5.735136729	8.360863271
78	1	8.360863271	5.735136729	8.360863271
84	1	5.735136729	8.360863271	8.360863271
85	4	7.048	7.048	7.048
86	3	8.360863271	8.360863271	8.360863271
48	4	10.98658981	5.735136729	5.735136729
56	3	10.98658981	8.360863271	5.735136729
80	5	10.98658981	5.735136729	8.360863271
87	2	9.673726542	7.048	7.048
88	2	10.98658981	8.360863271	8.360863271
58	3	3.109410187	10.98658981	5.735136729
89	3	1.796546916	9.673726542	7.048
90	2	3.109410187	10.98658981	8.360863271
91	4	4.422273458	9.673726542	7.048
60	4	5.735136729	10.98658981	5.735136729
62	1	8.360863271	10.98658981	5.735136729
92	3	5.735136729	10.98658981	8.360863271
93	1	7.048	9.673726542	7.048
94	5	8.360863271	10.98658981	8.360863271
64	5	10.98658981	10.98658981	5.735136729
95	5	9.673726542	9.673726542	7.048
96	4	10.98658981	10.98658981	8.360863271
97	5	1.796546916	1.796546916	9.673726542
98	4	3.109410187	3.109410187	10.98658981
99	4	4.422273458	1.796546916	9.673726542
105	2	1.796546916	4.422273458	9.673726542
107	1	4.422273458	4.422273458	9.673726542
100	3	5.735136729	3.109410187	10.98658981
101	3	7.048	1.796546916	9.673726542
102	5	8.360863271	3.109410187	10.98658981
109	2	7.048	4.422273458	9.673726542
103	4	9.673726542	1.796546916	9.673726542
104	1	10.98658981	3.109410187	10.98658981
111	5	9.673726542	4.422273458	9.673726542
106	2	3.109410187	5.735136729	10.98658981
113	3	1.796546916	7.048	9.673726542
114	3	3.109410187	8.360863271	10.98658981
115	5	4.422273458	7.048	9.673726542
108	4	5.735136729	5.735136729	10.98658981
110	2	8.360863271	5.735136729	10.98658981
116	5	5.735136729	8.360863271	10.98658981
117	3	7.048	7.048	9.673726542
118	4	8.360863271	8.360863271	10.98658981
112	3	10.98658981	5.735136729	10.98658981
119	4	9.673726542	7.048	9.673726542
120	1	10.98658981	8.360863271	10.98658981
121	1	1.796546916	9.673726542	9.673726542
122	1	3.109410187	10.98658981	10.98658981
123	2	4.422273458	9.673726542	9.673726542
124	4	5.735136729	10.98658981	10.98658981
125	5	7.048	9.673726542	9.673726542
126	1	8.360863271	10.98658981	10.98658981
127	2	9.673726542	9.673726542	9.673726542
128	3	10.98658981	10.98658981	10.98658981


Velocities

1 0 0 0
2 0 0 0
3 0 0 0
9 0 0 0
11 0 0 0
33 0 0 0
35 0 0 0
41 0 0 0
43 0 0 0
4 0 0 0
5 0 0 0
6 0 0 0
13 0 0 0
37 0 0 0
45 0 0 0
7 0 0 0
8 0 0 0
15 0 0 0
39 0 0 0
47 0 0 0
10 0 0 0
17 0 0 0
18 0 0 0
19 0 0 0
49 0 0 0
51 0 0 0
12 0 0 0
14 0 0 0
20 0 0 0
21 0 0 0
22 0 0 0
53 0 0 0
16 0 0 0
23 0 0 0
24 0 0 0
55 0 0 0
25 0 0 0
26 0 0 0
27 0 0 0
57 0 0 0
59 0 0 0
28 0 0 0
29 0 0 0
30 0 0 0
61 0 0 0
31 0 0 0
32 0 0 0
63 0 0 0
34 0 0 0
65 0 0 0
66 0 0 0
67 0 0 0
73 0 0 0
75 0 0 0
36 0 0 0
38 0 0 0
68 0 0 0
69 0 0 0
70 0 0 0
77 0 0 0
40 0 0 0
71 0 0 0
72 0 0 0
79 0 0 0
42 0 0 0
50 0 0 0
74 0 0 0
81 0 0 0
82 0 0 0
83 0 0 0
44 0 0 0
46 0 0 0
52 0 0 0
54 0 0 0
76 0 0 0
78 0 0 0
84 0 0 0
85 0 0 0
86 0 0 0
48 0 0 0
56 0 0 0
80 0 0 0
87 0 0 0
88 0 0 0
58 0 0 0
89 0 0 0
90 0 0 0
91 0 0 0
60 0 0 0
62 0 0 0
92 0 0 0
93 0 0 0
94 0 0 0
64 0 0 0
95 0 0 0
96 0 0 0
97 0 0 0
98 0 0 0
99 0 0 0
105 0 0 0
107 0 0 0
100 0 0 0
101 0 0 0
102 0 0 0
109 0 0 0
103 0 0 0
104 0 0 0
111 0 0 0
106 0 0 0
113 0 0 0
114 0 0 0
115 0 0 0
108 0 0 0
110 0 0 0
116 0 0 0
117 0 0 0
118 0 0 0
112 0 0 0
119 0 0 0
120 0 0 0
121 0 0 0
122 0 0 0
123 0 0 0
124 0 0 0
125 0 0 0
126 0 0 0
127 0 0 0
128 0 0 0
