 LAMMPS data file via lmpdata.f95
  
    6912 atoms
       4 atom types
  
     0.289     71.591 xlo xhi
     0.289     71.591 ylo yhi
     0.289     71.591 zlo zhi
  
 Atoms
  
       1        3      0.000      0.000      0.000
       2        1      2.971      2.971      0.000
       3        2      0.000      2.971      2.971
       4        4      2.971      0.000      2.971
       5        3      5.942      0.000      0.000
       6        1      8.913      2.971      0.000
       7        2      5.942      2.971      2.971
       8        4      8.913      0.000      2.971
       9        2     11.884      0.000      0.000
      10        1     14.855      2.971      0.000
      11        3     11.884      2.971      2.971
      12        4     14.855      0.000      2.971
      13        3     17.826      0.000      0.000
      14        1     20.797      2.971      0.000
      15        2     17.826      2.971      2.971
      16        4     20.797      0.000      2.971
      17        2     23.767      0.000      0.000
      18        4     26.738      2.971      0.000
      19        3     23.767      2.971      2.971
      20        2     26.738      0.000      2.971
      21        1     29.709      0.000      0.000
      22        4     32.680      2.971      0.000
      23        3     29.709      2.971      2.971
      24        2     32.680      0.000      2.971
      25        1     35.651      0.000      0.000
      26        4     38.622      2.971      0.000
      27        3     35.651      2.971      2.971
      28        2     38.622      0.000      2.971
      29        1     41.593      0.000      0.000
      30        4     44.564      2.971      0.000
      31        3     41.593      2.971      2.971
      32        2     44.564      0.000      2.971
      33        3     47.535      0.000      0.000
      34        4     50.506      2.971      0.000
      35        1     47.535      2.971      2.971
      36        2     50.506      0.000      2.971
      37        3     53.477      0.000      0.000
      38        4     56.448      2.971      0.000
      39        1     53.477      2.971      2.971
      40        2     56.448      0.000      2.971
      41        3     59.419      0.000      0.000
      42        1     62.390      2.971      0.000
      43        2     59.419      2.971      2.971
      44        4     62.390      0.000      2.971
      45        3     65.361      0.000      0.000
      46        1     68.331      2.971      0.000
      47        2     65.361      2.971      2.971
      48        4     68.331      0.000      2.971
      49        3      0.000      5.942      0.000
      50        1      2.971      8.913      0.000
      51        2      0.000      8.913      2.971
      52        4      2.971      5.942      2.971
      53        3      5.942      5.942      0.000
      54        1      8.913      8.913      0.000
      55        2      5.942      8.913      2.971
      56        4      8.913      5.942      2.971
      57        2     11.884      5.942      0.000
      58        1     14.855      8.913      0.000
      59        3     11.884      8.913      2.971
      60        4     14.855      5.942      2.971
      61        2     17.826      5.942      0.000
      62        1     20.797      8.913      0.000
      63        2     17.826      8.913      2.971
      64        4     20.797      5.942      2.971
      65        2     23.767      5.942      0.000
      66        4     26.738      8.913      0.000
      67        3     23.767      8.913      2.971
      68        1     26.738      5.942      2.971
      69        2     29.709      5.942      0.000
      70        4     32.680      8.913      0.000
      71        3     29.709      8.913      2.971
      72        1     32.680      5.942      2.971
      73        2     35.651      5.942      0.000
      74        4     38.622      8.913      0.000
      75        3     35.651      8.913      2.971
      76        1     38.622      5.942      2.971
      77        2     41.593      5.942      0.000
      78        4     44.564      8.913      0.000
      79        1     41.593      8.913      2.971
      80        3     44.564      5.942      2.971
      81        2     47.535      5.942      0.000
      82        4     50.506      8.913      0.000
      83        1     47.535      8.913      2.971
      84        3     50.506      5.942      2.971
      85        2     53.477      5.942      0.000
      86        4     56.448      8.913      0.000
      87        1     53.477      8.913      2.971
      88        3     56.448      5.942      2.971
      89        3     59.419      5.942      0.000
      90        1     62.390      8.913      0.000
      91        2     59.419      8.913      2.971
      92        4     62.390      5.942      2.971
      93        3     65.361      5.942      0.000
      94        1     68.331      8.913      0.000
      95        2     65.361      8.913      2.971
      96        4     68.331      5.942      2.971
      97        2      0.000     11.884      0.000
      98        1      2.971     14.855      0.000
      99        4      0.000     14.855      2.971
     100        4      2.971     11.884      2.971
     101        2      5.942     11.884      0.000
     102        3      8.913     14.855      0.000
     103        1      5.942     14.855      2.971
     104        4      8.913     11.884      2.971
     105        2     11.884     11.884      0.000
     106        4     14.855     14.855      0.000
     107        1     11.884     14.855      2.971
     108        4     14.855     11.884      2.971
     109        2     17.826     11.884      0.000
     110        4     20.797     14.855      0.000
     111        1     17.826     14.855      2.971
     112        4     20.797     11.884      2.971
     113        2     23.767     11.884      0.000
     114        4     26.738     14.855      0.000
     115        3     23.767     14.855      2.971
     116        1     26.738     11.884      2.971
     117        2     29.709     11.884      0.000
     118        4     32.680     14.855      0.000
     119        3     29.709     14.855      2.971
     120        1     32.680     11.884      2.971
     121        2     35.651     11.884      0.000
     122        4     38.622     14.855      0.000
     123        3     35.651     14.855      2.971
     124        1     38.622     11.884      2.971
     125        2     41.593     11.884      0.000
     126        4     44.564     14.855      0.000
     127        1     41.593     14.855      2.971
     128        3     44.564     11.884      2.971
     129        2     47.535     11.884      0.000
     130        4     50.506     14.855      0.000
     131        1     47.535     14.855      2.971
     132        3     50.506     11.884      2.971
     133        2     53.477     11.884      0.000
     134        4     56.448     14.855      0.000
     135        1     53.477     14.855      2.971
     136        3     56.448     11.884      2.971
     137        2     59.419     11.884      0.000
     138        1     62.390     14.855      0.000
     139        1     59.419     14.855      2.971
     140        4     62.390     11.884      2.971
     141        2     65.361     11.884      0.000
     142        1     68.331     14.855      0.000
     143        4     65.361     14.855      2.971
     144        4     68.331     11.884      2.971
     145        3      0.000     17.826      0.000
     146        1      2.971     20.797      0.000
     147        4      0.000     20.797      2.971
     148        2      2.971     17.826      2.971
     149        3      5.942     17.826      0.000
     150        2      8.913     20.797      0.000
     151        4      5.942     20.797      2.971
     152        4      8.913     17.826      2.971
     153        2     11.884     17.826      0.000
     154        4     14.855     20.797      0.000
     155        1     11.884     20.797      2.971
     156        3     14.855     17.826      2.971
     157        2     17.826     17.826      0.000
     158        4     20.797     20.797      0.000
     159        1     17.826     20.797      2.971
     160        3     20.797     17.826      2.971
     161        2     23.767     17.826      0.000
     162        4     26.738     20.797      0.000
     163        1     23.767     20.797      2.971
     164        2     26.738     17.826      2.971
     165        1     29.709     17.826      0.000
     166        3     32.680     20.797      0.000
     167        3     29.709     20.797      2.971
     168        2     32.680     17.826      2.971
     169        1     35.651     17.826      0.000
     170        3     38.622     20.797      0.000
     171        4     35.651     20.797      2.971
     172        2     38.622     17.826      2.971
     173        1     41.593     17.826      0.000
     174        3     44.564     20.797      0.000
     175        4     41.593     20.797      2.971
     176        2     44.564     17.826      2.971
     177        3     47.535     17.826      0.000
     178        1     50.506     20.797      0.000
     179        4     47.535     20.797      2.971
     180        2     50.506     17.826      2.971
     181        3     53.477     17.826      0.000
     182        1     56.448     20.797      0.000
     183        4     53.477     20.797      2.971
     184        2     56.448     17.826      2.971
     185        3     59.419     17.826      0.000
     186        1     62.390     20.797      0.000
     187        4     59.419     20.797      2.971
     188        2     62.390     17.826      2.971
     189        3     65.361     17.826      0.000
     190        1     68.331     20.797      0.000
     191        4     65.361     20.797      2.971
     192        2     68.331     17.826      2.971
     193        3      0.000     23.767      0.000
     194        1      2.971     26.738      0.000
     195        4      0.000     26.738      2.971
     196        2      2.971     23.767      2.971
     197        3      5.942     23.767      0.000
     198        1      8.913     26.738      0.000
     199        4      5.942     26.738      2.971
     200        2      8.913     23.767      2.971
     201        3     11.884     23.767      0.000
     202        1     14.855     26.738      0.000
     203        4     11.884     26.738      2.971
     204        2     14.855     23.767      2.971
     205        3     17.826     23.767      0.000
     206        1     20.797     26.738      0.000
     207        4     17.826     26.738      2.971
     208        2     20.797     23.767      2.971
     209        3     23.767     23.767      0.000
     210        4     26.738     26.738      0.000
     211        4     23.767     26.738      2.971
     212        2     26.738     23.767      2.971
     213        1     29.709     23.767      0.000
     214        4     32.680     26.738      0.000
     215        3     29.709     26.738      2.971
     216        1     32.680     23.767      2.971
     217        1     35.651     23.767      0.000
     218        4     38.622     26.738      0.000
     219        3     35.651     26.738      2.971
     220        2     38.622     23.767      2.971
     221        1     41.593     23.767      0.000
     222        4     44.564     26.738      0.000
     223        3     41.593     26.738      2.971
     224        2     44.564     23.767      2.971
     225        1     47.535     23.767      0.000
     226        1     50.506     26.738      0.000
     227        3     47.535     26.738      2.971
     228        2     50.506     23.767      2.971
     229        3     53.477     23.767      0.000
     230        1     56.448     26.738      0.000
     231        4     53.477     26.738      2.971
     232        2     56.448     23.767      2.971
     233        3     59.419     23.767      0.000
     234        1     62.390     26.738      0.000
     235        4     59.419     26.738      2.971
     236        2     62.390     23.767      2.971
     237        3     65.361     23.767      0.000
     238        1     68.331     26.738      0.000
     239        4     65.361     26.738      2.971
     240        2     68.331     23.767      2.971
     241        3      0.000     29.709      0.000
     242        1      2.971     32.680      0.000
     243        4      0.000     32.680      2.971
     244        2      2.971     29.709      2.971
     245        3      5.942     29.709      0.000
     246        1      8.913     32.680      0.000
     247        4      5.942     32.680      2.971
     248        2      8.913     29.709      2.971
     249        3     11.884     29.709      0.000
     250        1     14.855     32.680      0.000
     251        4     11.884     32.680      2.971
     252        2     14.855     29.709      2.971
     253        3     17.826     29.709      0.000
     254        1     20.797     32.680      0.000
     255        2     17.826     32.680      2.971
     256        4     20.797     29.709      2.971
     257        3     23.767     29.709      0.000
     258        4     26.738     32.680      0.000
     259        2     23.767     32.680      2.971
     260        1     26.738     29.709      2.971
     261        2     29.709     29.709      0.000
     262        4     32.680     32.680      0.000
     263        3     29.709     32.680      2.971
     264        1     32.680     29.709      2.971
     265        2     35.651     29.709      0.000
     266        4     38.622     32.680      0.000
     267        3     35.651     32.680      2.971
     268        1     38.622     29.709      2.971
     269        2     41.593     29.709      0.000
     270        4     44.564     32.680      0.000
     271        3     41.593     32.680      2.971
     272        1     44.564     29.709      2.971
     273        4     47.535     29.709      0.000
     274        1     50.506     32.680      0.000
     275        3     47.535     32.680      2.971
     276        2     50.506     29.709      2.971
     277        3     53.477     29.709      0.000
     278        1     56.448     32.680      0.000
     279        4     53.477     32.680      2.971
     280        2     56.448     29.709      2.971
     281        3     59.419     29.709      0.000
     282        1     62.390     32.680      0.000
     283        4     59.419     32.680      2.971
     284        2     62.390     29.709      2.971
     285        3     65.361     29.709      0.000
     286        1     68.331     32.680      0.000
     287        4     65.361     32.680      2.971
     288        2     68.331     29.709      2.971
     289        3      0.000     35.651      0.000
     290        1      2.971     38.622      0.000
     291        4      0.000     38.622      2.971
     292        2      2.971     35.651      2.971
     293        3      5.942     35.651      0.000
     294        1      8.913     38.622      0.000
     295        4      5.942     38.622      2.971
     296        2      8.913     35.651      2.971
     297        3     11.884     35.651      0.000
     298        1     14.855     38.622      0.000
     299        2     11.884     38.622      2.971
     300        4     14.855     35.651      2.971
     301        3     17.826     35.651      0.000
     302        1     20.797     38.622      0.000
     303        2     17.826     38.622      2.971
     304        4     20.797     35.651      2.971
     305        3     23.767     35.651      0.000
     306        4     26.738     38.622      0.000
     307        2     23.767     38.622      2.971
     308        1     26.738     35.651      2.971
     309        2     29.709     35.651      0.000
     310        4     32.680     38.622      0.000
     311        3     29.709     38.622      2.971
     312        1     32.680     35.651      2.971
     313        2     35.651     35.651      0.000
     314        4     38.622     38.622      0.000
     315        3     35.651     38.622      2.971
     316        1     38.622     35.651      2.971
     317        2     41.593     35.651      0.000
     318        4     44.564     38.622      0.000
     319        3     41.593     38.622      2.971
     320        1     44.564     35.651      2.971
     321        2     47.535     35.651      0.000
     322        1     50.506     38.622      0.000
     323        3     47.535     38.622      2.971
     324        2     50.506     35.651      2.971
     325        3     53.477     35.651      0.000
     326        1     56.448     38.622      0.000
     327        4     53.477     38.622      2.971
     328        2     56.448     35.651      2.971
     329        3     59.419     35.651      0.000
     330        1     62.390     38.622      0.000
     331        4     59.419     38.622      2.971
     332        2     62.390     35.651      2.971
     333        3     65.361     35.651      0.000
     334        1     68.331     38.622      0.000
     335        4     65.361     38.622      2.971
     336        2     68.331     35.651      2.971
     337        3      0.000     41.593      0.000
     338        4      2.971     44.564      0.000
     339        1      0.000     44.564      2.971
     340        2      2.971     41.593      2.971
     341        3      5.942     41.593      0.000
     342        1      8.913     44.564      0.000
     343        2      5.942     44.564      2.971
     344        4      8.913     41.593      2.971
     345        3     11.884     41.593      0.000
     346        1     14.855     44.564      0.000
     347        2     11.884     44.564      2.971
     348        4     14.855     41.593      2.971
     349        3     17.826     41.593      0.000
     350        1     20.797     44.564      0.000
     351        2     17.826     44.564      2.971
     352        4     20.797     41.593      2.971
     353        3     23.767     41.593      0.000
     354        4     26.738     44.564      0.000
     355        2     23.767     44.564      2.971
     356        1     26.738     41.593      2.971
     357        2     29.709     41.593      0.000
     358        4     32.680     44.564      0.000
     359        3     29.709     44.564      2.971
     360        1     32.680     41.593      2.971
     361        2     35.651     41.593      0.000
     362        4     38.622     44.564      0.000
     363        3     35.651     44.564      2.971
     364        1     38.622     41.593      2.971
     365        2     41.593     41.593      0.000
     366        4     44.564     44.564      0.000
     367        3     41.593     44.564      2.971
     368        1     44.564     41.593      2.971
     369        2     47.535     41.593      0.000
     370        4     50.506     44.564      0.000
     371        3     47.535     44.564      2.971
     372        2     50.506     41.593      2.971
     373        3     53.477     41.593      0.000
     374        4     56.448     44.564      0.000
     375        1     53.477     44.564      2.971
     376        2     56.448     41.593      2.971
     377        3     59.419     41.593      0.000
     378        4     62.390     44.564      0.000
     379        1     59.419     44.564      2.971
     380        2     62.390     41.593      2.971
     381        3     65.361     41.593      0.000
     382        4     68.331     44.564      0.000
     383        1     65.361     44.564      2.971
     384        2     68.331     41.593      2.971
     385        3      0.000     47.535      0.000
     386        4      2.971     50.506      0.000
     387        1      0.000     50.506      2.971
     388        2      2.971     47.535      2.971
     389        3      5.942     47.535      0.000
     390        2      8.913     50.506      0.000
     391        1      5.942     50.506      2.971
     392        4      8.913     47.535      2.971
     393        3     11.884     47.535      0.000
     394        1     14.855     50.506      0.000
     395        2     11.884     50.506      2.971
     396        4     14.855     47.535      2.971
     397        3     17.826     47.535      0.000
     398        1     20.797     50.506      0.000
     399        2     17.826     50.506      2.971
     400        4     20.797     47.535      2.971
     401        3     23.767     47.535      0.000
     402        4     26.738     50.506      0.000
     403        2     23.767     50.506      2.971
     404        1     26.738     47.535      2.971
     405        2     29.709     47.535      0.000
     406        4     32.680     50.506      0.000
     407        3     29.709     50.506      2.971
     408        1     32.680     47.535      2.971
     409        2     35.651     47.535      0.000
     410        4     38.622     50.506      0.000
     411        3     35.651     50.506      2.971
     412        1     38.622     47.535      2.971
     413        2     41.593     47.535      0.000
     414        4     44.564     50.506      0.000
     415        3     41.593     50.506      2.971
     416        1     44.564     47.535      2.971
     417        2     47.535     47.535      0.000
     418        1     50.506     50.506      0.000
     419        3     47.535     50.506      2.971
     420        2     50.506     47.535      2.971
     421        3     53.477     47.535      0.000
     422        1     56.448     50.506      0.000
     423        4     53.477     50.506      2.971
     424        2     56.448     47.535      2.971
     425        3     59.419     47.535      0.000
     426        1     62.390     50.506      0.000
     427        4     59.419     50.506      2.971
     428        2     62.390     47.535      2.971
     429        3     65.361     47.535      0.000
     430        4     68.331     50.506      0.000
     431        4     65.361     50.506      2.971
     432        2     68.331     47.535      2.971
     433        3      0.000     53.477      0.000
     434        4      2.971     56.448      0.000
     435        1      0.000     56.448      2.971
     436        2      2.971     53.477      2.971
     437        3      5.942     53.477      0.000
     438        2      8.913     56.448      0.000
     439        1      5.942     56.448      2.971
     440        4      8.913     53.477      2.971
     441        3     11.884     53.477      0.000
     442        2     14.855     56.448      0.000
     443        1     11.884     56.448      2.971
     444        4     14.855     53.477      2.971
     445        3     17.826     53.477      0.000
     446        1     20.797     56.448      0.000
     447        2     17.826     56.448      2.971
     448        4     20.797     53.477      2.971
     449        3     23.767     53.477      0.000
     450        4     26.738     56.448      0.000
     451        2     23.767     56.448      2.971
     452        1     26.738     53.477      2.971
     453        2     29.709     53.477      0.000
     454        4     32.680     56.448      0.000
     455        3     29.709     56.448      2.971
     456        1     32.680     53.477      2.971
     457        2     35.651     53.477      0.000
     458        4     38.622     56.448      0.000
     459        3     35.651     56.448      2.971
     460        1     38.622     53.477      2.971
     461        2     41.593     53.477      0.000
     462        4     44.564     56.448      0.000
     463        3     41.593     56.448      2.971
     464        1     44.564     53.477      2.971
     465        2     47.535     53.477      0.000
     466        4     50.506     56.448      0.000
     467        3     47.535     56.448      2.971
     468        2     50.506     53.477      2.971
     469        3     53.477     53.477      0.000
     470        4     56.448     56.448      0.000
     471        4     53.477     56.448      2.971
     472        2     56.448     53.477      2.971
     473        3     59.419     53.477      0.000
     474        4     62.390     56.448      0.000
     475        1     59.419     56.448      2.971
     476        2     62.390     53.477      2.971
     477        3     65.361     53.477      0.000
     478        4     68.331     56.448      0.000
     479        1     65.361     56.448      2.971
     480        2     68.331     53.477      2.971
     481        3      0.000     59.419      0.000
     482        1      2.971     62.390      0.000
     483        4      0.000     62.390      2.971
     484        2      2.971     59.419      2.971
     485        3      5.942     59.419      0.000
     486        1      8.913     62.390      0.000
     487        2      5.942     62.390      2.971
     488        4      8.913     59.419      2.971
     489        3     11.884     59.419      0.000
     490        1     14.855     62.390      0.000
     491        2     11.884     62.390      2.971
     492        4     14.855     59.419      2.971
     493        3     17.826     59.419      0.000
     494        1     20.797     62.390      0.000
     495        2     17.826     62.390      2.971
     496        4     20.797     59.419      2.971
     497        3     23.767     59.419      0.000
     498        4     26.738     62.390      0.000
     499        2     23.767     62.390      2.971
     500        1     26.738     59.419      2.971
     501        2     29.709     59.419      0.000
     502        4     32.680     62.390      0.000
     503        3     29.709     62.390      2.971
     504        1     32.680     59.419      2.971
     505        2     35.651     59.419      0.000
     506        4     38.622     62.390      0.000
     507        3     35.651     62.390      2.971
     508        1     38.622     59.419      2.971
     509        1     41.593     59.419      0.000
     510        4     44.564     62.390      0.000
     511        3     41.593     62.390      2.971
     512        1     44.564     59.419      2.971
     513        3     47.535     59.419      0.000
     514        1     50.506     62.390      0.000
     515        3     47.535     62.390      2.971
     516        2     50.506     59.419      2.971
     517        3     53.477     59.419      0.000
     518        1     56.448     62.390      0.000
     519        4     53.477     62.390      2.971
     520        2     56.448     59.419      2.971
     521        3     59.419     59.419      0.000
     522        1     62.390     62.390      0.000
     523        4     59.419     62.390      2.971
     524        2     62.390     59.419      2.971
     525        3     65.361     59.419      0.000
     526        1     68.331     62.390      0.000
     527        4     65.361     62.390      2.971
     528        2     68.331     59.419      2.971
     529        2      0.000     65.361      0.000
     530        4      2.971     68.331      0.000
     531        1      0.000     68.331      2.971
     532        3      2.971     65.361      2.971
     533        4      5.942     65.361      0.000
     534        2      8.913     68.331      0.000
     535        1      5.942     68.331      2.971
     536        3      8.913     65.361      2.971
     537        4     11.884     65.361      0.000
     538        2     14.855     68.331      0.000
     539        1     11.884     68.331      2.971
     540        3     14.855     65.361      2.971
     541        4     17.826     65.361      0.000
     542        2     20.797     68.331      0.000
     543        1     17.826     68.331      2.971
     544        3     20.797     65.361      2.971
     545        3     23.767     65.361      0.000
     546        4     26.738     68.331      0.000
     547        1     23.767     68.331      2.971
     548        1     26.738     65.361      2.971
     549        2     29.709     65.361      0.000
     550        4     32.680     68.331      0.000
     551        3     29.709     68.331      2.971
     552        1     32.680     65.361      2.971
     553        2     35.651     65.361      0.000
     554        4     38.622     68.331      0.000
     555        3     35.651     68.331      2.971
     556        1     38.622     65.361      2.971
     557        2     41.593     65.361      0.000
     558        4     44.564     68.331      0.000
     559        3     41.593     68.331      2.971
     560        1     44.564     65.361      2.971
     561        3     47.535     65.361      0.000
     562        4     50.506     68.331      0.000
     563        1     47.535     68.331      2.971
     564        2     50.506     65.361      2.971
     565        3     53.477     65.361      0.000
     566        4     56.448     68.331      0.000
     567        1     53.477     68.331      2.971
     568        2     56.448     65.361      2.971
     569        3     59.419     65.361      0.000
     570        4     62.390     68.331      0.000
     571        1     59.419     68.331      2.971
     572        2     62.390     65.361      2.971
     573        3     65.361     65.361      0.000
     574        4     68.331     68.331      0.000
     575        1     65.361     68.331      2.971
     576        3     68.331     65.361      2.971
     577        3      0.000      0.000      5.942
     578        2      2.971      2.971      5.942
     579        1      0.000      2.971      8.913
     580        4      2.971      0.000      8.913
     581        3      5.942      0.000      5.942
     582        1      8.913      2.971      5.942
     583        1      5.942      2.971      8.913
     584        4      8.913      0.000      8.913