 LAMMPS data file via lmpdata.f95
  
    6912 atoms
       4 atom types
  
     0.289     71.591 xlo xhi
     0.289     71.591 ylo yhi
     0.289     71.591 zlo zhi
  
 Atoms
  
       1        2      0.000      0.000      0.000
       2        1      2.971      2.971      0.000
       3        2      0.000      2.971      2.971
       4        2      2.971      0.000      2.971
       5        4      5.942      0.000      0.000
       6        4      8.913      2.971      0.000
       7        3      5.942      2.971      2.971
       8        2      8.913      0.000      2.971
       9        1     11.884      0.000      0.000
      10        2     14.855      2.971      0.000
      11        3     11.884      2.971      2.971
      12        4     14.855      0.000      2.971
      13        2     17.826      0.000      0.000
      14        1     20.797      2.971      0.000
      15        2     17.826      2.971      2.971
      16        2     20.797      0.000      2.971
      17        3     23.767      0.000      0.000
      18        1     26.738      2.971      0.000
      19        4     23.767      2.971      2.971
      20        3     26.738      0.000      2.971
      21        3     29.709      0.000      0.000
      22        1     32.680      2.971      0.000
      23        1     29.709      2.971      2.971
      24        1     32.680      0.000      2.971
      25        2     35.651      0.000      0.000
      26        1     38.622      2.971      0.000
      27        2     35.651      2.971      2.971
      28        2     38.622      0.000      2.971
      29        3     41.593      0.000      0.000
      30        1     44.564      2.971      0.000
      31        4     41.593      2.971      2.971
      32        3     44.564      0.000      2.971
      33        1     47.535      0.000      0.000
      34        2     50.506      2.971      0.000
      35        1     47.535      2.971      2.971
      36        2     50.506      0.000      2.971
      37        1     53.477      0.000      0.000
      38        2     56.448      2.971      0.000
      39        4     53.477      2.971      2.971
      40        3     56.448      0.000      2.971
      41        4     59.419      0.000      0.000
      42        1     62.390      2.971      0.000
      43        3     59.419      2.971      2.971
      44        1     62.390      0.000      2.971
      45        1     65.361      0.000      0.000
      46        2     68.331      2.971      0.000
      47        3     65.361      2.971      2.971
      48        3     68.331      0.000      2.971
      49        3      0.000      5.942      0.000
      50        3      2.971      8.913      0.000
      51        1      0.000      8.913      2.971
      52        4      2.971      5.942      2.971
      53        3      5.942      5.942      0.000
      54        2      8.913      8.913      0.000
      55        4      5.942      8.913      2.971
      56        1      8.913      5.942      2.971
      57        2     11.884      5.942      0.000
      58        2     14.855      8.913      0.000
      59        4     11.884      8.913      2.971
      60        3     14.855      5.942      2.971
      61        3     17.826      5.942      0.000
      62        1     20.797      8.913      0.000
      63        2     17.826      8.913      2.971
      64        4     20.797      5.942      2.971
      65        1     23.767      5.942      0.000
      66        1     26.738      8.913      0.000
      67        2     23.767      8.913      2.971
      68        3     26.738      5.942      2.971
      69        4     29.709      5.942      0.000
      70        2     32.680      8.913      0.000
      71        2     29.709      8.913      2.971
      72        4     32.680      5.942      2.971
      73        2     35.651      5.942      0.000
      74        1     38.622      8.913      0.000
      75        4     35.651      8.913      2.971
      76        2     38.622      5.942      2.971
      77        1     41.593      5.942      0.000
      78        4     44.564      8.913      0.000
      79        1     41.593      8.913      2.971
      80        4     44.564      5.942      2.971
      81        1     47.535      5.942      0.000
      82        3     50.506      8.913      0.000
      83        1     47.535      8.913      2.971
      84        2     50.506      5.942      2.971
      85        2     53.477      5.942      0.000
      86        3     56.448      8.913      0.000
      87        4     53.477      8.913      2.971
      88        1     56.448      5.942      2.971
      89        3     59.419      5.942      0.000
      90        2     62.390      8.913      0.000
      91        2     59.419      8.913      2.971
      92        3     62.390      5.942      2.971
      93        2     65.361      5.942      0.000
      94        3     68.331      8.913      0.000
      95        1     65.361      8.913      2.971
      96        3     68.331      5.942      2.971
      97        1      0.000     11.884      0.000
      98        1      2.971     14.855      0.000
      99        4      0.000     14.855      2.971
     100        1      2.971     11.884      2.971
     101        2      5.942     11.884      0.000
     102        3      8.913     14.855      0.000
     103        2      5.942     14.855      2.971
     104        4      8.913     11.884      2.971
     105        1     11.884     11.884      0.000
     106        4     14.855     14.855      0.000
     107        1     11.884     14.855      2.971
     108        1     14.855     11.884      2.971
     109        4     17.826     11.884      0.000
     110        4     20.797     14.855      0.000
     111        1     17.826     14.855      2.971
     112        3     20.797     11.884      2.971
     113        2     23.767     11.884      0.000
     114        3     26.738     14.855      0.000
     115        4     23.767     14.855      2.971
     116        1     26.738     11.884      2.971
     117        4     29.709     11.884      0.000
     118        4     32.680     14.855      0.000
     119        2     29.709     14.855      2.971
     120        4     32.680     11.884      2.971
     121        3     35.651     11.884      0.000
     122        4     38.622     14.855      0.000
     123        3     35.651     14.855      2.971
     124        1     38.622     11.884      2.971
     125        1     41.593     11.884      0.000
     126        3     44.564     14.855      0.000
     127        4     41.593     14.855      2.971
     128        4     44.564     11.884      2.971
     129        3     47.535     11.884      0.000
     130        1     50.506     14.855      0.000
     131        2     47.535     14.855      2.971
     132        2     50.506     11.884      2.971
     133        2     53.477     11.884      0.000
     134        3     56.448     14.855      0.000
     135        4     53.477     14.855      2.971
     136        2     56.448     11.884      2.971
     137        2     59.419     11.884      0.000
     138        1     62.390     14.855      0.000
     139        4     59.419     14.855      2.971
     140        1     62.390     11.884      2.971
     141        1     65.361     11.884      0.000
     142        4     68.331     14.855      0.000
     143        2     65.361     14.855      2.971
     144        3     68.331     11.884      2.971
     145        1      0.000     17.826      0.000
     146        3      2.971     20.797      0.000
     147        2      0.000     20.797      2.971
     148        4      2.971     17.826      2.971
     149        3      5.942     17.826      0.000
     150        4      8.913     20.797      0.000
     151        2      5.942     20.797      2.971
     152        3      8.913     17.826      2.971
     153        1     11.884     17.826      0.000
     154        1     14.855     20.797      0.000
     155        4     11.884     20.797      2.971
     156        2     14.855     17.826      2.971
     157        3     17.826     17.826      0.000
     158        3     20.797     20.797      0.000
     159        1     17.826     20.797      2.971
     160        3     20.797     17.826      2.971
     161        1     23.767     17.826      0.000
     162        4     26.738     20.797      0.000
     163        3     23.767     20.797      2.971
     164        4     26.738     17.826      2.971
     165        1     29.709     17.826      0.000
     166        3     32.680     20.797      0.000
     167        3     29.709     20.797      2.971
     168        3     32.680     17.826      2.971
     169        4     35.651     17.826      0.000
     170        2     38.622     20.797      0.000
     171        3     35.651     20.797      2.971
     172        4     38.622     17.826      2.971
     173        2     41.593     17.826      0.000
     174        3     44.564     20.797      0.000
     175        4     41.593     20.797      2.971
     176        1     44.564     17.826      2.971
     177        2     47.535     17.826      0.000
     178        3     50.506     20.797      0.000
     179        1     47.535     20.797      2.971
     180        4     50.506     17.826      2.971
     181        3     53.477     17.826      0.000
     182        3     56.448     20.797      0.000
     183        1     53.477     20.797      2.971
     184        1     56.448     17.826      2.971
     185        2     59.419     17.826      0.000
     186        4     62.390     20.797      0.000
     187        3     59.419     20.797      2.971
     188        3     62.390     17.826      2.971
     189        2     65.361     17.826      0.000
     190        3     68.331     20.797      0.000
     191        4     65.361     20.797      2.971
     192        4     68.331     17.826      2.971
     193        2      0.000     23.767      0.000
     194        2      2.971     26.738      0.000
     195        2      0.000     26.738      2.971
     196        3      2.971     23.767      2.971
     197        4      5.942     23.767      0.000
     198        4      8.913     26.738      0.000
     199        2      5.942     26.738      2.971
     200        1      8.913     23.767      2.971
     201        1     11.884     23.767      0.000
     202        2     14.855     26.738      0.000
     203        3     11.884     26.738      2.971
     204        1     14.855     23.767      2.971
     205        4     17.826     23.767      0.000
     206        2     20.797     26.738      0.000
     207        2     17.826     26.738      2.971
     208        1     20.797     23.767      2.971
     209        3     23.767     23.767      0.000
     210        3     26.738     26.738      0.000
     211        1     23.767     26.738      2.971
     212        3     26.738     23.767      2.971
     213        4     29.709     23.767      0.000
     214        4     32.680     26.738      0.000
     215        3     29.709     26.738      2.971
     216        3     32.680     23.767      2.971
     217        2     35.651     23.767      0.000
     218        1     38.622     26.738      0.000
     219        1     35.651     26.738      2.971
     220        2     38.622     23.767      2.971
     221        2     41.593     23.767      0.000
     222        4     44.564     26.738      0.000
     223        2     41.593     26.738      2.971
     224        3     44.564     23.767      2.971
     225        1     47.535     23.767      0.000
     226        3     50.506     26.738      0.000
     227        2     47.535     26.738      2.971
     228        1     50.506     23.767      2.971
     229        1     53.477     23.767      0.000
     230        2     56.448     26.738      0.000
     231        1     53.477     26.738      2.971
     232        2     56.448     23.767      2.971
     233        4     59.419     23.767      0.000
     234        4     62.390     26.738      0.000
     235        2     59.419     26.738      2.971
     236        4     62.390     23.767      2.971
     237        1     65.361     23.767      0.000
     238        1     68.331     26.738      0.000
     239        1     65.361     26.738      2.971
     240        2     68.331     23.767      2.971
     241        4      0.000     29.709      0.000
     242        2      2.971     32.680      0.000
     243        3      0.000     32.680      2.971
     244        1      2.971     29.709      2.971
     245        3      5.942     29.709      0.000
     246        4      8.913     32.680      0.000
     247        3      5.942     32.680      2.971
     248        2      8.913     29.709      2.971
     249        2     11.884     29.709      0.000
     250        2     14.855     32.680      0.000
     251        4     11.884     32.680      2.971
     252        1     14.855     29.709      2.971
     253        2     17.826     29.709      0.000
     254        2     20.797     32.680      0.000
     255        3     17.826     32.680      2.971
     256        4     20.797     29.709      2.971
     257        1     23.767     29.709      0.000
     258        1     26.738     32.680      0.000
     259        2     23.767     32.680      2.971
     260        2     26.738     29.709      2.971
     261        3     29.709     29.709      0.000
     262        2     32.680     32.680      0.000
     263        2     29.709     32.680      2.971
     264        1     32.680     29.709      2.971
     265        2     35.651     29.709      0.000
     266        3     38.622     32.680      0.000
     267        2     35.651     32.680      2.971
     268        2     38.622     29.709      2.971
     269        1     41.593     29.709      0.000
     270        1     44.564     32.680      0.000
     271        1     41.593     32.680      2.971
     272        2     44.564     29.709      2.971
     273        2     47.535     29.709      0.000
     274        2     50.506     32.680      0.000
     275        4     47.535     32.680      2.971
     276        1     50.506     29.709      2.971
     277        4     53.477     29.709      0.000
     278        2     56.448     32.680      0.000
     279        3     53.477     32.680      2.971
     280        1     56.448     29.709      2.971
     281        4     59.419     29.709      0.000
     282        2     62.390     32.680      0.000
     283        2     59.419     32.680      2.971
     284        3     62.390     29.709      2.971
     285        4     65.361     29.709      0.000
     286        2     68.331     32.680      0.000
     287        2     65.361     32.680      2.971
     288        3     68.331     29.709      2.971
     289        1      0.000     35.651      0.000
     290        2      2.971     38.622      0.000
     291        3      0.000     38.622      2.971
     292        4      2.971     35.651      2.971
     293        1      5.942     35.651      0.000
     294        2      8.913     38.622      0.000
     295        4      5.942     38.622      2.971
     296        4      8.913     35.651      2.971
     297        2     11.884     35.651      0.000
     298        4     14.855     38.622      0.000
     299        3     11.884     38.622      2.971
     300        4     14.855     35.651      2.971
     301        2     17.826     35.651      0.000
     302        4     20.797     38.622      0.000
     303        1     17.826     38.622      2.971
     304        4     20.797     35.651      2.971
     305        2     23.767     35.651      0.000
     306        3     26.738     38.622      0.000
     307        2     23.767     38.622      2.971
     308        4     26.738     35.651      2.971
     309        4     29.709     35.651      0.000
     310        3     32.680     38.622      0.000
     311        2     29.709     38.622      2.971
     312        2     32.680     35.651      2.971
     313        1     35.651     35.651      0.000
     314        1     38.622     38.622      0.000
     315        4     35.651     38.622      2.971
     316        1     38.622     35.651      2.971
     317        2     41.593     35.651      0.000
     318        2     44.564     38.622      0.000
     319        1     41.593     38.622      2.971
     320        1     44.564     35.651      2.971
     321        2     47.535     35.651      0.000
     322        4     50.506     38.622      0.000
     323        4     47.535     38.622      2.971
     324        2     50.506     35.651      2.971
     325        3     53.477     35.651      0.000
     326        2     56.448     38.622      0.000
     327        3     53.477     38.622      2.971
     328        3     56.448     35.651      2.971
     329        2     59.419     35.651      0.000
     330        3     62.390     38.622      0.000
     331        2     59.419     38.622      2.971
     332        3     62.390     35.651      2.971
     333        2     65.361     35.651      0.000
     334        3     68.331     38.622      0.000
     335        1     65.361     38.622      2.971
     336        4     68.331     35.651      2.971
     337        2      0.000     41.593      0.000
     338        1      2.971     44.564      0.000
     339        4      0.000     44.564      2.971
     340        4      2.971     41.593      2.971
     341        2      5.942     41.593      0.000
     342        4      8.913     44.564      0.000
     343        2      5.942     44.564      2.971
     344        1      8.913     41.593      2.971
     345        2     11.884     41.593      0.000
     346        2     14.855     44.564      0.000
     347        4     11.884     44.564      2.971
     348        1     14.855     41.593      2.971
     349        2     17.826     41.593      0.000
     350        2     20.797     44.564      0.000
     351        3     17.826     44.564      2.971
     352        3     20.797     41.593      2.971
     353        3     23.767     41.593      0.000
     354        1     26.738     44.564      0.000
     355        2     23.767     44.564      2.971
     356        1     26.738     41.593      2.971
     357        3     29.709     41.593      0.000
     358        1     32.680     44.564      0.000
     359        3     29.709     44.564      2.971
     360        2     32.680     41.593      2.971
     361        1     35.651     41.593      0.000
     362        1     38.622     44.564      0.000
     363        3     35.651     44.564      2.971
     364        3     38.622     41.593      2.971
     365        4     41.593     41.593      0.000
     366        2     44.564     44.564      0.000
     367        3     41.593     44.564      2.971
     368        3     44.564     41.593      2.971
     369        1     47.535     41.593      0.000
     370        3     50.506     44.564      0.000
     371        4     47.535     44.564      2.971
     372        4     50.506     41.593      2.971
     373        3     53.477     41.593      0.000
     374        1     56.448     44.564      0.000
     375        2     53.477     44.564      2.971
     376        4     56.448     41.593      2.971
     377        1     59.419     41.593      0.000
     378        4     62.390     44.564      0.000
     379        4     59.419     44.564      2.971
     380        1     62.390     41.593      2.971
     381        1     65.361     41.593      0.000
     382        4     68.331     44.564      0.000
     383        3     65.361     44.564      2.971
     384        3     68.331     41.593      2.971
     385        1      0.000     47.535      0.000
     386        1      2.971     50.506      0.000
     387        3      0.000     50.506      2.971
     388        4      2.971     47.535      2.971
     389        2      5.942     47.535      0.000
     390        1      8.913     50.506      0.000
     391        3      5.942     50.506      2.971
     392        2      8.913     47.535      2.971
     393        3     11.884     47.535      0.000
     394        2     14.855     50.506      0.000
     395        3     11.884     50.506      2.971
     396        1     14.855     47.535      2.971
     397        4     17.826     47.535      0.000
     398        4     20.797     50.506      0.000
     399        2     17.826     50.506      2.971
     400        2     20.797     47.535      2.971
     401        1     23.767     47.535      0.000
     402        1     26.738     50.506      0.000
     403        2     23.767     50.506      2.971
     404        1     26.738     47.535      2.971
     405        3     29.709     47.535      0.000
     406        1     32.680     50.506      0.000
     407        3     29.709     50.506      2.971
     408        3     32.680     47.535      2.971
     409        4     35.651     47.535      0.000
     410        4     38.622     50.506      0.000
     411        3     35.651     50.506      2.971
     412        3     38.622     47.535      2.971
     413        4     41.593     47.535      0.000
     414        3     44.564     50.506      0.000
     415        1     41.593     50.506      2.971
     416        1     44.564     47.535      2.971
     417        2     47.535     47.535      0.000
     418        1     50.506     50.506      0.000
     419        1     47.535     50.506      2.971
     420        4     50.506     47.535      2.971
     421        3     53.477     47.535      0.000
     422        2     56.448     50.506      0.000
     423        2     53.477     50.506      2.971
     424        4     56.448     47.535      2.971
     425        4     59.419     47.535      0.000
     426        4     62.390     50.506      0.000
     427        1     59.419     50.506      2.971
     428        2     62.390     47.535      2.971
     429        3     65.361     47.535      0.000
     430        2     68.331     50.506      0.000
     431        2     65.361     50.506      2.971
     432        2     68.331     47.535      2.971
     433        1      0.000     53.477      0.000
     434        4      2.971     56.448      0.000
     435        4      0.000     56.448      2.971
     436        2      2.971     53.477      2.971
     437        3      5.942     53.477      0.000
     438        3      8.913     56.448      0.000
     439        2      5.942     56.448      2.971
     440        1      8.913     53.477      2.971
     441        1     11.884     53.477      0.000
     442        3     14.855     56.448      0.000
     443        3     11.884     56.448      2.971
     444        4     14.855     53.477      2.971
     445        2     17.826     53.477      0.000
     446        3     20.797     56.448      0.000
     447        4     17.826     56.448      2.971
     448        1     20.797     53.477      2.971
     449        3     23.767     53.477      0.000
     450        1     26.738     56.448      0.000
     451        4     23.767     56.448      2.971
     452        4     26.738     53.477      2.971
     453        3     29.709     53.477      0.000
     454        1     32.680     56.448      0.000
     455        4     29.709     56.448      2.971
     456        4     32.680     53.477      2.971
     457        3     35.651     53.477      0.000
     458        2     38.622     56.448      0.000
     459        4     35.651     56.448      2.971
     460        3     38.622     53.477      2.971
     461        1     41.593     53.477      0.000
     462        4     44.564     56.448      0.000
     463        3     41.593     56.448      2.971
     464        2     44.564     53.477      2.971
     465        1     47.535     53.477      0.000
     466        4     50.506     56.448      0.000
     467        4     47.535     56.448      2.971
     468        3     50.506     53.477      2.971
     469        1     53.477     53.477      0.000
     470        2     56.448     56.448      0.000
     471        3     53.477     56.448      2.971
     472        2     56.448     53.477      2.971
     473        2     59.419     53.477      0.000
     474        2     62.390     56.448      0.000
     475        3     59.419     56.448      2.971
     476        2     62.390     53.477      2.971
     477        1     65.361     53.477      0.000
     478        3     68.331     56.448      0.000
     479        2     65.361     56.448      2.971
     480        2     68.331     53.477      2.971
     481        3      0.000     59.419      0.000
     482        4      2.971     62.390      0.000
     483        4      0.000     62.390      2.971
     484        3      2.971     59.419      2.971
     485        2      5.942     59.419      0.000
     486        4      8.913     62.390      0.000
     487        3      5.942     62.390      2.971
     488        4      8.913     59.419      2.971
     489        4     11.884     59.419      0.000
     490        2     14.855     62.390      0.000
     491        1     11.884     62.390      2.971
     492        1     14.855     59.419      2.971
     493        1     17.826     59.419      0.000
     494        3     20.797     62.390      0.000
     495        1     17.826     62.390      2.971
     496        2     20.797     59.419      2.971
     497        1     23.767     59.419      0.000
     498        3     26.738     62.390      0.000
     499        1     23.767     62.390      2.971
     500        2     26.738     59.419      2.971
     501        2     29.709     59.419      0.000
     502        4     32.680     62.390      0.000
     503        1     29.709     62.390      2.971
     504        4     32.680     59.419      2.971
     505        1     35.651     59.419      0.000
     506        2     38.622     62.390      0.000
     507        4     35.651     62.390      2.971
     508        4     38.622     59.419      2.971
     509        3     41.593     59.419      0.000
     510        3     44.564     62.390      0.000
     511        2     41.593     62.390      2.971
     512        1     44.564     59.419      2.971
     513        1     47.535     59.419      0.000
     514        4     50.506     62.390      0.000
     515        3     47.535     62.390      2.971
     516        3     50.506     59.419      2.971
     517        1     53.477     59.419      0.000
     518        3     56.448     62.390      0.000
     519        1     53.477     62.390      2.971
     520        2     56.448     59.419      2.971
     521        1     59.419     59.419      0.000
     522        3     62.390     62.390      0.000
     523        1     59.419     62.390      2.971
     524        1     62.390     59.419      2.971
     525        2     65.361     59.419      0.000
     526        4     68.331     62.390      0.000
     527        3     65.361     62.390      2.971
     528        2     68.331     59.419      2.971
     529        2      0.000     65.361      0.000
     530        1      2.971     68.331      0.000
     531        4      0.000     68.331      2.971
     532        3      2.971     65.361      2.971
     533        1      5.942     65.361      0.000
     534        4      8.913     68.331      0.000
     535        4      5.942     68.331      2.971
     536        1      8.913     65.361      2.971
     537        3     11.884     65.361      0.000
     538        3     14.855     68.331      0.000
     539        3     11.884     68.331      2.971
     540        2     14.855     65.361      2.971
     541        4     17.826     65.361      0.000
     542        3     20.797     68.331      0.000
     543        4     17.826     68.331      2.971
     544        4     20.797     65.361      2.971
     545        1     23.767     65.361      0.000
     546        1     26.738     68.331      0.000
     547        4     23.767     68.331      2.971
     548        4     26.738     65.361      2.971
     549        2     29.709     65.361      0.000
     550        2     32.680     68.331      0.000
     551        2     29.709     68.331      2.971
     552        2     32.680     65.361      2.971
     553        4     35.651     65.361      0.000
     554        4     38.622     68.331      0.000
     555        2     35.651     68.331      2.971
     556        4     38.622     65.361      2.971
     557        4     41.593     65.361      0.000
     558        1     44.564     68.331      0.000
     559        2     41.593     68.331      2.971
     560        2     44.564     65.361      2.971
     561        1     47.535     65.361      0.000
     562        1     50.506     68.331      0.000
     563        2     47.535     68.331      2.971
     564        3     50.506     65.361      2.971
     565        2     53.477     65.361      0.000
     566        2     56.448     68.331      0.000
     567        4     53.477     68.331      2.971
     568        3     56.448     65.361      2.971
     569        4     59.419     65.361      0.000
     570        2     62.390     68.331      0.000
     571        1     59.419     68.331      2.971
     572        1     62.390     65.361      2.971
     573        2     65.361     65.361      0.000
     574        4     68.331     68.331      0.000
     575        1     65.361     68.331      2.971
     576        1     68.331     65.361      2.971
     577        1      0.000      0.000      5.942
     578        3      2.971      2.971      5.942
     579        2      0.000      2.971      8.913
     580        3      2.971      0.000      8.913
     581        3      5.942      0.000      5.942
     582        2      8.913      2.971      5.942
     583        2      5.942      2.971      8.913
     584        3      8.913      0.000      8.913